          15
Time step:                3979 Sim. Time [au]       79580.00
Sn   -0.12739427E+01    0.54842293E+00   -0.49918629E+00
C     0.28192024E+00    0.77412178E+00    0.92879800E+00
C    -0.48512909E+00    0.35749715E-01   -0.23817392E+01
C    -0.28908841E+01   -0.59486551E+00    0.27579587E+00
O    -0.19320542E+01    0.23231149E+01   -0.63624413E+00
H    -0.22103476E+01    0.32041908E+01   -0.10498135E+01
H     0.38216931E+00   -0.39687107E+00   -0.22016453E+01
H    -0.21679391E+00    0.98935674E+00   -0.27195792E+01
H    -0.12474505E+01   -0.24882610E+00   -0.29840383E+01
H    -0.18002909E+00    0.14184586E+01    0.18130723E+01
H     0.56527652E+00   -0.82941562E-01    0.14240492E+01
H     0.10491409E+01    0.12167858E+01    0.42590809E+00
H    -0.32094902E+01   -0.13058219E+01   -0.42726450E+00
H    -0.26724088E+01   -0.10974022E+01    0.11693616E+01
H    -0.38125878E+01    0.23388697E+00    0.45532450E+00
          15
Time step:                5959 Sim. Time [au]      119180.00
Sn   -0.15358363E+01    0.58908835E+00   -0.58484532E+00
C     0.50580268E+00    0.29797752E+00   -0.24130988E+00
C    -0.18981901E+01    0.20997778E+00   -0.26907221E+01
C    -0.29673174E+01   -0.31745650E+00    0.81436042E+00
O    -0.19239064E+01    0.25014452E+01   -0.40581933E+00
H    -0.20790973E+01    0.31583438E+01    0.15013607E+00
H    -0.15351121E+01    0.11563185E+01   -0.30930777E+01
H    -0.30533538E+01   -0.23266731E+00   -0.28676314E+01
H    -0.11756017E+01   -0.53930829E+00   -0.28452552E+01
H     0.71288276E+00    0.16077186E+00    0.83824518E+00
H     0.98278440E+00   -0.52845426E+00   -0.84631266E+00
H     0.11043554E+01    0.13720534E+01   -0.46175490E+00
H    -0.29489209E+01   -0.13758750E+01    0.89582422E+00
H    -0.28645463E+01    0.40040873E-01    0.18251918E+01
H    -0.39865370E+01   -0.29345182E-02    0.58734021E+00
          15
Time step:                7939 Sim. Time [au]      158780.00
Sn   -0.10958789E+01   -0.18580880E+00   -0.50087914E+00
C     0.82951567E+00   -0.11161552E+01   -0.94599297E+00
C    -0.23887043E+01    0.31719187E+00   -0.21846325E+01
C    -0.19406348E+01   -0.10052739E+01    0.12481634E+01
O    -0.67234758E+00    0.16160221E+01    0.11543651E+00
H     0.12649255E+00    0.20069541E+01    0.57383792E+00
H    -0.15795043E+01    0.27916824E-01   -0.30865390E+01
H    -0.23812882E+01    0.13620141E+01   -0.21643263E+01
H    -0.32236849E+01   -0.30358565E+00   -0.23378726E+01
H     0.12193452E+01   -0.72940596E+00   -0.18413974E+01
H     0.14319889E+01   -0.52812581E+00   -0.19708875E+00
H     0.94384167E+00   -0.22066362E+01   -0.87395567E+00
H    -0.25838822E+01   -0.18568742E+01    0.87339014E+00
H    -0.12092218E+01   -0.15080506E+01    0.19803322E+01
H    -0.25659974E+01   -0.26858882E+00    0.16083951E+01
          15
Time step:                9919 Sim. Time [au]      198380.00
Sn   -0.49949832E+00   -0.77845289E+00   -0.53376801E+00
C     0.99945007E+00   -0.18969224E+01   -0.15672006E+01
C    -0.22526113E+01   -0.63958769E+00   -0.15584847E+01
C    -0.45281238E+00   -0.13249741E+01    0.15102452E+01
O     0.17476859E+00    0.10060691E+01   -0.18192383E+00
H     0.91842707E+00    0.16094797E+01   -0.57285763E+00
H    -0.19438396E+01   -0.57825719E+00   -0.27311633E+01
H    -0.25446838E+01    0.39513347E+00   -0.12839152E+01
H    -0.32973551E+01   -0.13244690E+01   -0.13486189E+01
H     0.64449656E+00   -0.28646581E+01   -0.23076677E+01
H     0.18874296E+01   -0.13197309E+01   -0.20508697E+01
H     0.16410888E+01   -0.25508130E+01   -0.97936596E+00
H    -0.13455017E+01   -0.11180741E+01    0.21627669E+01
H    -0.46669229E-01   -0.23603293E+01    0.17906464E+01
H     0.35899519E+00   -0.62562717E+00    0.20013388E+01
          15
Time step:               11899 Sim. Time [au]      237980.00
Sn    0.36905193E-01   -0.11106926E+01   -0.87958999E+00
C     0.18297015E+01   -0.19820927E+01   -0.17741970E+01
C    -0.16683058E+01   -0.20006931E+01   -0.17257264E+01
C    -0.17114964E-01   -0.12186771E+01    0.13101746E+01
O     0.47210906E-01    0.74205046E+00   -0.12967011E+01
H     0.18818835E+00    0.10712230E+01   -0.21522670E+01
H    -0.26227277E+01   -0.14721651E+01   -0.15337794E+01
H    -0.18548911E+01   -0.31161648E+01   -0.13190506E+01
H    -0.16318325E+01   -0.18576905E+01   -0.27452144E+01
H     0.20831537E+01   -0.11399463E+01   -0.25724303E+01
H     0.26610283E+01   -0.20159804E+01   -0.11414586E+01
H     0.16975519E+01   -0.29663001E+01   -0.19149113E+01
H     0.75304031E+00   -0.18177310E+01    0.14510082E+01
H     0.39774973E-01   -0.10877879E+00    0.15363184E+01
H    -0.88414283E+00   -0.16853757E+01    0.16540883E+01
          15
Time step:               13879 Sim. Time [au]      277580.00
Sn    0.25289736E+00   -0.15713019E+01   -0.93941798E+00
C     0.17393614E+01   -0.14161258E+01   -0.25898225E+01
C    -0.88169994E+00   -0.33950127E+01   -0.74369603E+00
C     0.12321940E+01   -0.10483920E+01    0.93600200E+00
O    -0.11873845E+01   -0.15627007E+00   -0.11684267E+01
H    -0.16592949E+01    0.50914505E+00   -0.17390462E+01
H    -0.16002497E+01   -0.34006456E+01    0.10074594E+00
H    -0.27958690E+00   -0.43509279E+01   -0.55981404E+00
H    -0.14883440E+01   -0.34467997E+01   -0.15942359E+01
H     0.18681972E+01   -0.24589872E+00   -0.26985620E+01
H     0.27060056E+01   -0.16804977E+01   -0.23202051E+01
H     0.12109330E+01   -0.17490125E+01   -0.35508402E+01
H     0.13807869E+01   -0.19704305E+01    0.17656899E+01
H     0.22070353E+01   -0.49656741E+00    0.94520368E+00
H     0.61815694E+00   -0.26791765E+00    0.12938927E+01
          15
Time step:               15859 Sim. Time [au]      317180.00
Sn    0.34059904E+00   -0.16507318E+01   -0.11076298E+01
C    -0.15942056E+00   -0.22437496E+01   -0.30686809E+01
C     0.25884830E+00   -0.33552190E+01    0.14264876E+00
C     0.22154052E+01   -0.73860333E+00   -0.88685461E+00
O    -0.97599323E+00   -0.49544923E+00   -0.40578681E+00
H    -0.14161286E+01    0.26519061E+00   -0.80998862E+00
H     0.76948263E+00   -0.31231949E+01    0.10378550E+01
H     0.63014889E+00   -0.43772158E+01   -0.20133103E+00
H    -0.73236319E+00   -0.34108656E+01    0.59809320E+00
H     0.59641739E+00   -0.28509108E+01   -0.36208073E+01
H    -0.10476318E+01   -0.26634072E+01   -0.31647255E+01
H    -0.72134497E-01   -0.13925266E+01   -0.37772118E+01
H     0.24213206E+01   -0.83413045E-01    0.91087768E-01
H     0.29457160E+01   -0.14423976E+01   -0.11421037E+01
H     0.23798877E+01    0.11653961E+00   -0.16541621E+01
          15
Time step:               17839 Sim. Time [au]      356780.00
Sn    0.70622579E-01   -0.18988059E+01   -0.11648628E+01
C    -0.15122895E+01   -0.32837722E+01   -0.19085458E+01
C     0.14657675E+01   -0.28648904E+01    0.17889911E+00
C     0.12848263E+01   -0.99464234E+00   -0.26752599E+01
O    -0.75699342E+00   -0.50627446E+00   -0.91747128E-01
H    -0.12270864E+01   -0.71704124E+00    0.88844613E+00
H     0.21643844E+01   -0.36176917E+01   -0.28475905E+00
H     0.77505439E+00   -0.31896818E+01    0.94537624E+00
H     0.19313878E+01   -0.20770950E+01    0.73676926E+00
H    -0.17349666E+01   -0.40491546E+01   -0.12420967E+01
H    -0.23485342E+01   -0.27386116E+01   -0.21220033E+01
H    -0.10755530E+01   -0.35808579E+01   -0.28546468E+01
H     0.23132569E+01   -0.10071170E+01   -0.21291501E+01
H     0.12294819E+01   -0.14515787E+01   -0.36265180E+01
H     0.90249569E+00    0.18494516E-01   -0.30322386E+01
          15
Time step:               19819 Sim. Time [au]      396380.00
Sn   -0.16951933E+00   -0.21853715E+01   -0.13122710E+01
C    -0.18332747E+01   -0.30843820E+01   -0.26234925E+00
C     0.15496258E+01   -0.26550677E+01   -0.15753738E+00
C    -0.15925975E-01   -0.29504509E+01   -0.33768340E+01
O    -0.39075314E+00   -0.36279550E+00   -0.14378484E+01
H    -0.93165838E+00    0.24814951E+00   -0.19387257E+01
H     0.18155067E+01   -0.20164812E+01    0.71374606E+00
H     0.24522432E+01   -0.25549160E+01   -0.95861220E+00
H     0.15117201E+01   -0.37262031E+01    0.18841743E+00
H    -0.16460876E+01   -0.41926432E+01   -0.45847402E-01
H    -0.20238600E+01   -0.26776514E+01    0.76063915E+00
H    -0.27828403E+01   -0.32832331E+01   -0.83098032E+00
H     0.84517768E+00   -0.37339267E+01   -0.36028138E+01
H    -0.10329315E+01   -0.32363169E+01   -0.36051989E+01
H     0.22327083E+00   -0.19652767E+01   -0.40921921E+01
          15
Time step:               21799 Sim. Time [au]      435980.00
Sn   -0.71103791E+00   -0.19089662E+01   -0.15629306E+01
C    -0.17189383E+01   -0.24586982E+01    0.31274972E+00
C     0.13526236E+01   -0.15058029E+01   -0.10428378E+01
C    -0.70292129E+00   -0.33168466E+01   -0.30608286E+01
O    -0.14008710E+01   -0.36862499E+00   -0.24653190E+01
H    -0.13232055E+01    0.32483970E+00   -0.18590616E+01
H     0.20550714E+01   -0.22413149E+01   -0.17934216E+01
H     0.14889153E+01   -0.21290409E+01   -0.13434426E+00
H     0.16405579E+01   -0.46377527E+00   -0.10424849E+01
H    -0.17404175E+01   -0.35521628E+01    0.64375107E+00
H    -0.12179205E+01   -0.18214269E+01    0.11760110E+01
H    -0.27766511E+01   -0.19619335E+01    0.14578180E+00
H     0.16748024E+00   -0.36138162E+01   -0.36776437E+01
H    -0.10959037E+01   -0.42993627E+01   -0.28216189E+01
H    -0.16595359E+01   -0.31964843E+01   -0.38468428E+01
          15
Time step:               23779 Sim. Time [au]      475580.00
Sn   -0.11472132E+01   -0.18166438E+01   -0.13073039E+01
C    -0.12054211E+01   -0.19471307E+01    0.76274836E+00
C     0.40672919E+00   -0.46720447E+00   -0.20642687E+01
C    -0.10673477E+01   -0.37369474E+01   -0.21655393E+01
O    -0.29216230E+01   -0.11365225E+01   -0.15801158E+01
H    -0.35881816E+01   -0.10182650E+01   -0.22349856E+01
H     0.72073413E+00    0.61036421E+00   -0.15841185E+01
H     0.29537922E+00   -0.17943166E+00   -0.31106692E+01
H     0.13805516E+01   -0.89141085E+00   -0.20559918E+01
H    -0.44475142E+00   -0.26629633E+01    0.10020733E+01
H    -0.94616101E+00   -0.10744262E+01    0.12227937E+01
H    -0.19688386E+01   -0.25891432E+01    0.12232170E+01
H    -0.23065768E+00   -0.41814175E+01   -0.25785647E+01
H    -0.15102904E+01   -0.45310319E+01   -0.16654124E+01
H    -0.17052365E+01   -0.38167338E+01   -0.31708546E+01
          15
Time step:               25759 Sim. Time [au]      515180.00
Sn   -0.17840113E+01   -0.18759700E+01   -0.13442450E+01
C    -0.73721766E+00   -0.24503393E+01    0.46674147E+00
C    -0.10022045E+01   -0.26729557E+00   -0.24957639E+01
C    -0.22286136E+01   -0.34092751E+01   -0.26389768E+01
O    -0.35628317E+01   -0.13122375E+01   -0.85712895E+00
H    -0.42932547E+01   -0.14009437E+01    0.42521732E-01
H    -0.44544766E+00    0.49954293E+00   -0.20940851E+01
H    -0.20967189E+01    0.52652324E-01   -0.27853106E+01
H    -0.55478062E+00   -0.69613207E+00   -0.32976040E+01
H     0.22155425E+00   -0.23630899E+01    0.31929003E+00
H    -0.10080833E+01   -0.16406214E+01    0.12198779E+01
H    -0.10159666E+01   -0.35205579E+01    0.87727313E+00
H    -0.14139842E+01   -0.34999838E+01   -0.33036769E+01
H    -0.22006525E+01   -0.44765992E+01   -0.20832892E+01
H    -0.31236033E+01   -0.31697065E+01   -0.31494176E+01
          15
Time step:               27739 Sim. Time [au]      554780.00
Sn   -0.24956384E+01   -0.20468594E+01   -0.97458390E+00
C    -0.83490538E+00   -0.26953818E+01    0.59785664E-01
C    -0.22453621E+01   -0.62682432E+00   -0.26249452E+01
C    -0.33582051E+01   -0.38482713E+01   -0.18123176E+01
O    -0.36311151E+01   -0.89969076E+00    0.13437231E+00
H    -0.38346705E+01   -0.12848706E+01    0.98264449E+00
H    -0.16095857E+01    0.13576623E+00   -0.20749622E+01
H    -0.32168014E+01   -0.22309898E+00   -0.26501239E+01
H    -0.20085184E+01   -0.12756522E+01   -0.36332392E+01
H    -0.15640492E+00   -0.19446304E+01    0.40117373E+00
H    -0.11633802E+01   -0.30584751E+01    0.12658210E+01
H    -0.22515632E+00   -0.35855786E+01   -0.54774358E+00
H    -0.42588480E+01   -0.36673891E+01   -0.26874613E+01
H    -0.26672173E+01   -0.45661277E+01   -0.22959380E+01
H    -0.38714498E+01   -0.44133823E+01   -0.11369430E+01
          15
Time step:               29719 Sim. Time [au]      594380.00
Sn   -0.33878112E+01   -0.26429415E+01   -0.84970548E+00
C    -0.12730064E+01   -0.23428534E+01   -0.34337649E+00
C    -0.38219300E+01   -0.15269756E+01   -0.26398720E+01
C    -0.42105583E+01   -0.45661701E+01   -0.66408277E+00
O    -0.42555172E+01   -0.15111311E+01    0.48805604E+00
H    -0.41958703E+01   -0.15051226E+01    0.13131211E+01
H    -0.49161210E+01   -0.15419192E+01   -0.29965486E+01
H    -0.29100414E+01   -0.18854061E+01   -0.36042054E+01
H    -0.35752012E+01   -0.47129546E+00   -0.23400629E+01
H    -0.11524804E+01   -0.23295897E+01    0.74522785E+00
H    -0.83616437E+00   -0.33947801E+01   -0.70867163E+00
H    -0.87495251E+00   -0.13759082E+01   -0.85794715E+00
H    -0.35324524E+01   -0.52833160E+01   -0.12147564E+01
H    -0.45517666E+01   -0.48989714E+01    0.48161552E+00
H    -0.50678105E+01   -0.45342782E+01   -0.11291579E+01
          15
Time step:               31699 Sim. Time [au]      633980.00
Sn   -0.42974775E+01   -0.28764224E+01   -0.12267153E+01
C    -0.21965135E+01   -0.24407277E+01   -0.13054821E+01
C    -0.51876140E+01   -0.28483205E+01   -0.31331091E+01
C    -0.45257656E+01   -0.46909930E+01   -0.74203846E-01
O    -0.53267600E+01   -0.14235685E+01   -0.21630608E+00
H    -0.49372933E+01   -0.46050562E+00   -0.38205353E+00
H    -0.58272814E+01   -0.19031143E+01   -0.32546473E+01
H    -0.58949114E+01   -0.37205535E+01   -0.35666153E+01
H    -0.43560339E+01   -0.27880124E+01   -0.38085125E+01
H    -0.18758135E+01   -0.35127726E+01   -0.17066503E+01
H    -0.20574639E+01   -0.14727721E+01   -0.19297942E+01
H    -0.19201061E+01   -0.21077884E+01   -0.28539080E+00
H    -0.47894667E+01   -0.45276366E+01    0.94045920E+00
H    -0.51662447E+01   -0.53517832E+01   -0.55747663E+00
H    -0.36590680E+01   -0.50642719E+01    0.12201817E+00
          15
Time step:               33679 Sim. Time [au]      673580.00
Sn   -0.48959136E+01   -0.29409748E+01   -0.15890613E+01
C    -0.33006304E+01   -0.20394785E+01   -0.27485193E+01
C    -0.60843609E+01   -0.40818680E+01   -0.29788152E+01
C    -0.40840638E+01   -0.41055879E+01   -0.60731057E-01
O    -0.56825532E+01   -0.13185321E+01   -0.71371414E+00
H    -0.53779563E+01   -0.34069833E+00   -0.91668928E+00
H    -0.55444793E+01   -0.44095962E+01   -0.36679506E+01
H    -0.70767587E+01   -0.36811167E+01   -0.33870874E+01
H    -0.66844957E+01   -0.50474291E+01   -0.25327746E+01
H    -0.23998363E+01   -0.26315907E+01   -0.26733664E+01
H    -0.35142694E+01   -0.18412501E+01   -0.38620298E+01
H    -0.29860733E+01   -0.10043553E+01   -0.24046603E+01
H    -0.31155661E+01   -0.45792673E+01   -0.55953881E-02
H    -0.45337669E+01   -0.35490904E+01    0.93034833E+00
H    -0.46496075E+01   -0.49471926E+01   -0.91644861E-01
          15
Time step:               35659 Sim. Time [au]      713180.00
Sn   -0.44635989E+01   -0.35575791E+01   -0.12796487E+01
C    -0.34793111E+01   -0.23511277E+01   -0.27276030E+01
C    -0.50556209E+01   -0.55795175E+01   -0.18296511E+01
C    -0.32830968E+01   -0.34285161E+01    0.50496656E+00
O    -0.60568374E+01   -0.26644923E+01   -0.56396520E+00
H    -0.68708352E+01   -0.20696935E+01   -0.58884971E+00
H    -0.42708477E+01   -0.60933562E+01   -0.25152827E+01
H    -0.61151256E+01   -0.56671628E+01   -0.22456220E+01
H    -0.51814810E+01   -0.63752634E+01   -0.10462329E+01
H    -0.39286200E+01   -0.13842487E+01   -0.29816767E+01
H    -0.25561601E+01   -0.23640941E+01   -0.21054474E+01
H    -0.31890456E+01   -0.28606310E+01   -0.37657703E+01
H    -0.22788232E+01   -0.33688286E+01    0.45044635E-01
H    -0.31352387E+01   -0.24076883E+01    0.91227794E+00
H    -0.33443918E+01   -0.40374635E+01    0.13083550E+01
          15
Time step:               37639 Sim. Time [au]      752780.00
Sn   -0.40643335E+01   -0.38879046E+01   -0.81743597E+00
C    -0.41373720E+01   -0.24621694E+01   -0.24750897E+01
C    -0.41386560E+01   -0.59408487E+01   -0.15287752E+01
C    -0.24826486E+01   -0.37105791E+01    0.57121078E+00
O    -0.56241838E+01   -0.35228615E+01    0.34234517E+00
H    -0.63554744E+01   -0.32267885E+01    0.16679373E+00
H    -0.35858950E+01   -0.66659721E+01   -0.84456702E+00
H    -0.38512334E+01   -0.61184563E+01   -0.25044507E+01
H    -0.51620892E+01   -0.63121904E+01   -0.12951789E+01
H    -0.41905037E+01   -0.14386023E+01   -0.20695711E+01
H    -0.30952755E+01   -0.25041042E+01   -0.31309704E+01
H    -0.49902161E+01   -0.25940152E+01   -0.31615043E+01
H    -0.27179399E+01   -0.28739437E+01    0.13507746E+01
H    -0.23959857E+01   -0.45082750E+01    0.12739367E+01
H    -0.15391921E+01   -0.36175955E+01    0.88933231E-01
          15
Time step:               39619 Sim. Time [au]      792380.00
Sn   -0.42640372E+01   -0.44172276E+01   -0.37973589E+00
C    -0.43020680E+01   -0.44934467E+01   -0.25303073E+01
C    -0.46304383E+01   -0.64435498E+01    0.35055216E+00
C    -0.23717377E+01   -0.35954932E+01    0.32062339E+00
O    -0.56998160E+01   -0.31354360E+01    0.18996091E+00
H    -0.64881861E+01   -0.30883905E+01   -0.37410266E+00
H    -0.54213424E+01   -0.62031595E+01    0.99393165E+00
H    -0.39206308E+01   -0.67577727E+01    0.11132649E+01
H    -0.46216776E+01   -0.72514724E+01   -0.56246057E+00
H    -0.39485108E+01   -0.54544751E+01   -0.28900420E+01
H    -0.53705321E+01   -0.41681907E+01   -0.27934586E+01
H    -0.37260237E+01   -0.37156711E+01   -0.30107752E+01
H    -0.22806992E+01   -0.39865808E+01    0.15487112E+01
H    -0.15750475E+01   -0.38622684E+01   -0.31224377E+00
H    -0.25426988E+01   -0.25112011E+01    0.34864884E+00
          15
Time step:               41599 Sim. Time [au]      831980.00
Sn   -0.40264877E+01   -0.45504267E+01    0.12974303E+00
C    -0.29800673E+01   -0.59091570E+01   -0.10641730E+01
C    -0.53831489E+01   -0.55894570E+01    0.13592683E+01
C    -0.25647042E+01   -0.35056647E+01    0.13506551E+01
O    -0.50374091E+01   -0.31785114E+01   -0.91085230E+00
H    -0.58451379E+01   -0.29281470E+01   -0.12008543E+01
H    -0.62745709E+01   -0.49789724E+01    0.15741306E+01
H    -0.50230874E+01   -0.55563395E+01    0.23161535E+01
H    -0.57212735E+01   -0.66545627E+01    0.11632188E+01
H    -0.21353516E+01   -0.65306100E+01   -0.76648406E+00
H    -0.37919681E+01   -0.66988203E+01   -0.14103094E+01
H    -0.26005968E+01   -0.54583160E+01   -0.20142005E+01
H    -0.29308116E+01   -0.27508244E+01    0.20652850E+01
H    -0.20826469E+01   -0.43903505E+01    0.20118314E+01
H    -0.18947812E+01   -0.30867172E+01    0.79808164E+00
          15
Time step:               43579 Sim. Time [au]      871580.00
Sn   -0.40394264E+01   -0.45484373E+01    0.52222782E+00
C    -0.40175026E+01   -0.66819894E+01    0.44955646E+00
C    -0.58075987E+01   -0.38477321E+01    0.13206806E+01
C    -0.23836529E+01   -0.36156493E+01    0.15786230E+01
O    -0.37844123E+01   -0.38799785E+01   -0.12663268E+01
H    -0.40339012E+01   -0.38214786E+01   -0.23058673E+01
H    -0.61491707E+01   -0.42190276E+01    0.22503847E+01
H    -0.67799198E+01   -0.38963084E+01    0.62652381E+00
H    -0.56316774E+01   -0.27764579E+01    0.15143427E+01
H    -0.32196950E+01   -0.70871952E+01    0.97486249E+00
H    -0.49565039E+01   -0.70435388E+01    0.67807032E+00
H    -0.36604051E+01   -0.68388198E+01   -0.59133466E+00
H    -0.21850021E+01   -0.40168373E+01    0.26164248E+01
H    -0.15433988E+01   -0.37382880E+01    0.89906164E+00
H    -0.26491889E+01   -0.25698990E+01    0.17460272E+01
          15
Time step:               45559 Sim. Time [au]      911180.00
Sn   -0.43080915E+01   -0.42490350E+01    0.36916179E+00
C    -0.50948530E+01   -0.61680487E+01    0.46385611E+00
C    -0.59291576E+01   -0.28036117E+01    0.34638223E+00
C    -0.31151187E+01   -0.40057571E+01    0.20513757E+01
O    -0.31915756E+01   -0.40272195E+01   -0.12311706E+01
H    -0.29235748E+01   -0.41647925E+01   -0.22183865E+01
H    -0.62964627E+01   -0.33730942E+01    0.12014128E+01
H    -0.67382059E+01   -0.29853369E+01   -0.52596394E+00
H    -0.55693087E+01   -0.17707407E+01    0.34624156E+00
H    -0.58546429E+01   -0.65545850E+01    0.11732254E+01
H    -0.55199955E+01   -0.65779757E+01   -0.30085257E+00
H    -0.43404947E+01   -0.69264932E+01    0.66000417E+00
H    -0.21333375E+01   -0.35020304E+01    0.15407836E+01
H    -0.36627237E+01   -0.32232278E+01    0.25926587E+01
H    -0.31210194E+01   -0.49078042E+01    0.25254903E+01
          15
Time step:               47539 Sim. Time [au]      950780.00
Sn   -0.44306212E+01   -0.40814949E+01    0.22957676E-01
C    -0.51871971E+01   -0.60320084E+01    0.32670586E+00
C    -0.61876820E+01   -0.28078301E+01    0.79814671E-01
C    -0.29701599E+01   -0.34116634E+01    0.14045241E+01
O    -0.37284798E+01   -0.37153801E+01   -0.17327583E+01
H    -0.29681885E+01   -0.40581603E+01   -0.22453617E+01
H    -0.60481893E+01   -0.17732784E+01    0.37281890E-01
H    -0.68421642E+01   -0.30153170E+01    0.96187126E+00
H    -0.68574889E+01   -0.31162127E+01   -0.69337613E+00
H    -0.55858437E+01   -0.60165876E+01    0.14550083E+01
H    -0.56767532E+01   -0.60931054E+01   -0.49330481E+00
H    -0.43452195E+01   -0.67492113E+01    0.41473865E+00
H    -0.20015397E+01   -0.32395024E+01    0.12021448E+01
H    -0.32990872E+01   -0.24596437E+01    0.18420058E+01
H    -0.29189223E+01   -0.41646549E+01    0.20597268E+01
          15
Time step:               49519 Sim. Time [au]      990380.00
Sn   -0.46095586E+01   -0.38757085E+01   -0.95894124E+00
C    -0.51277127E+01   -0.55698011E+01    0.21252555E+00
C    -0.63402824E+01   -0.26603652E+01   -0.12551805E+01
C    -0.29130256E+01   -0.27829668E+01   -0.40767948E+00
O    -0.43168721E+01   -0.46536349E+01   -0.26346947E+01
H    -0.37750330E+01   -0.48271635E+01   -0.35466668E+01
H    -0.71535247E+01   -0.31776794E+01   -0.17394838E+01
H    -0.59994542E+01   -0.16927718E+01   -0.16867475E+01
H    -0.69074003E+01   -0.24632225E+01   -0.32927377E+00
H    -0.48928801E+01   -0.53904791E+01    0.14066802E+01
H    -0.61654099E+01   -0.57014242E+01   -0.78400073E-01
H    -0.46552506E+01   -0.63405519E+01   -0.33081969E+00
H    -0.20558389E+01   -0.34444609E+01   -0.74389193E+00
H    -0.28376777E+01   -0.18381231E+01   -0.62412389E+00
H    -0.25919450E+01   -0.28255243E+01    0.64655394E+00
          15
Time step:               51499 Sim. Time [au]     1029980.00
Sn   -0.48260344E+01   -0.38531736E+01   -0.15408819E+01
C    -0.45674501E+01   -0.53359808E+01    0.17364401E-01
C    -0.68985386E+01   -0.31481609E+01   -0.17185889E+01
C    -0.34938334E+01   -0.22806312E+01   -0.11159276E+01
O    -0.44976995E+01   -0.47034199E+01   -0.32793338E+01
H    -0.40263731E+01   -0.45939502E+01   -0.40563522E+01
H    -0.76099005E+01   -0.39292330E+01   -0.11834107E+01
H    -0.72922211E+01   -0.29350367E+01   -0.26783116E+01
H    -0.71019565E+01   -0.22759461E+01   -0.12125196E+01
H    -0.40101764E+01   -0.50990353E+01    0.81977605E+00
H    -0.55778078E+01   -0.53007329E+01    0.65990725E+00
H    -0.42639276E+01   -0.61062333E+01   -0.49519466E+00
H    -0.25522467E+01   -0.28372555E+01   -0.11700280E+01
H    -0.35224259E+01   -0.13391470E+01   -0.18956601E+01
H    -0.37493515E+01   -0.17794983E+01   -0.11965238E+00
          15
Time step:               53479 Sim. Time [au]     1069580.00
Sn   -0.50606624E+01   -0.42688919E+01   -0.16327457E+01
C    -0.52041326E+01   -0.60035669E+01   -0.36874506E+00
C    -0.67043228E+01   -0.38344185E+01   -0.30259823E+01
C    -0.45185067E+01   -0.24875226E+01   -0.61921010E+00
O    -0.35045890E+01   -0.44905070E+01   -0.26902527E+01
H    -0.31619731E+01   -0.43009910E+01   -0.35616957E+01
H    -0.67076204E+01   -0.47532998E+01   -0.37826432E+01
H    -0.62692139E+01   -0.29692574E+01   -0.37767780E+01
H    -0.76910489E+01   -0.36949612E+01   -0.25581611E+01
H    -0.55027675E+01   -0.55343824E+01    0.55321910E+00
H    -0.60108329E+01   -0.66886115E+01   -0.66563074E+00
H    -0.42652356E+01   -0.63199919E+01   -0.36618548E+00
H    -0.44642843E+01   -0.16899487E+01   -0.12160300E+01
H    -0.55727445E+01   -0.22009538E+01    0.11921723E+00
H    -0.36063087E+01   -0.25194624E+01    0.14123265E+00
          15
Time step:               55459 Sim. Time [au]     1109180.00
Sn   -0.46054880E+01   -0.43622225E+01   -0.20396148E+01
C    -0.52930833E+01   -0.62406640E+01   -0.12892288E+01
C    -0.47408545E+01   -0.44598472E+01   -0.41328702E+01
C    -0.54602990E+01   -0.26710242E+01   -0.10966015E+01
O    -0.28273581E+01   -0.42166643E+01   -0.14971906E+01
H    -0.20057461E+01   -0.46039595E+01   -0.14132571E+01
H    -0.53049828E+01   -0.36143218E+01   -0.47139250E+01
H    -0.53981457E+01   -0.53099515E+01   -0.42750158E+01
H    -0.38127763E+01   -0.47171963E+01   -0.45452232E+01
H    -0.54110749E+01   -0.63027791E+01   -0.36055743E+00
H    -0.62650691E+01   -0.65458698E+01   -0.15014320E+01
H    -0.45828991E+01   -0.70793657E+01   -0.14737564E+01
H    -0.65077071E+01   -0.23543424E+01   -0.15487468E+01
H    -0.53901623E+01   -0.28616526E+01    0.16956369E-01
H    -0.47738787E+01   -0.18490543E+01   -0.15426469E+01
          15
Time step:               57439 Sim. Time [au]     1148780.00
Sn   -0.40136803E+01   -0.38236663E+01   -0.20708062E+01
C    -0.57144367E+01   -0.48685028E+01   -0.12348520E+01
C    -0.31759149E+01   -0.43500308E+01   -0.39588244E+01
C    -0.43668486E+01   -0.17262651E+01   -0.22841904E+01
O    -0.26635944E+01   -0.39125264E+01   -0.77953217E+00
H    -0.19077355E+01   -0.44254183E+01   -0.29057149E+00
H    -0.36739865E+01   -0.36167673E+01   -0.45526341E+01
H    -0.35491291E+01   -0.50859141E+01   -0.45686649E+01
H    -0.20989283E+01   -0.44531487E+01   -0.36409688E+01
H    -0.60073394E+01   -0.43787685E+01   -0.37721827E+00
H    -0.64174153E+01   -0.51835467E+01   -0.19853556E+01
H    -0.52257230E+01   -0.58274296E+01   -0.10620138E+01
H    -0.47313408E+01   -0.15583111E+01   -0.32194388E+01
H    -0.52397090E+01   -0.15350212E+01   -0.17169977E+01
H    -0.33868575E+01   -0.13158438E+01   -0.18843451E+01
          15
Time step:               59419 Sim. Time [au]     1188380.00
Sn   -0.39959062E+01   -0.34846308E+01   -0.21308980E+01
C    -0.60840397E+01   -0.39651396E+01   -0.18643743E+01
C    -0.27597750E+01   -0.49763598E+01   -0.30609921E+01
C    -0.41153086E+01   -0.16429289E+01   -0.31555581E+01
O    -0.33947658E+01   -0.30621724E+01   -0.42752534E+00
H    -0.37184290E+01   -0.22430979E+01    0.45385543E-01
H    -0.27280295E+01   -0.44583744E+01   -0.40069539E+01
H    -0.30852210E+01   -0.59953423E+01   -0.32758209E+01
H    -0.17625559E+01   -0.49730550E+01   -0.24683512E+01
H    -0.68219812E+01   -0.32341564E+01   -0.22113113E+01
H    -0.62597925E+01   -0.48466322E+01   -0.24064830E+01
H    -0.65369975E+01   -0.41882793E+01   -0.87178866E+00
H    -0.49736076E+01   -0.14698871E+01   -0.39556307E+01
H    -0.43200573E+01   -0.73449844E+00   -0.26558688E+01
H    -0.31796707E+01   -0.14560108E+01   -0.37256186E+01
          15
Time step:               61399 Sim. Time [au]     1227980.00
Sn   -0.45790232E+01   -0.32238932E+01   -0.26549538E+01
C    -0.66592476E+01   -0.35017802E+01   -0.26236802E+01
C    -0.35946244E+01   -0.52416714E+01   -0.30526925E+01
C    -0.37194602E+01   -0.20125747E+01   -0.41119714E+01
O    -0.37331824E+01   -0.26447309E+01   -0.94517140E+00
H    -0.37232149E+01   -0.27007771E+01   -0.49868260E-01
H    -0.38192771E+01   -0.57349185E+01   -0.21750070E+01
H    -0.26402315E+01   -0.50342536E+01   -0.31636790E+01
H    -0.42287186E+01   -0.55017953E+01   -0.38336519E+01
H    -0.72070910E+01   -0.24644353E+01   -0.27912159E+01
H    -0.70424308E+01   -0.41537913E+01   -0.34366306E+01
H    -0.68454716E+01   -0.40019394E+01   -0.15480159E+01
H    -0.43403609E+01   -0.10628953E+01   -0.42797287E+01
H    -0.27838484E+01   -0.17315913E+01   -0.37938654E+01
H    -0.35549450E+01   -0.23969210E+01   -0.50218102E+01
          15
Time step:               63379 Sim. Time [au]     1267580.00
Sn   -0.48262316E+01   -0.27520983E+01   -0.25586311E+01
C    -0.68286812E+01   -0.27018146E+01   -0.34219760E+01
C    -0.38059967E+01   -0.43141797E+01   -0.37053332E+01
C    -0.40325485E+01   -0.89794529E+00   -0.26029159E+01
O    -0.47792365E+01   -0.32415674E+01   -0.66916291E+00
H    -0.47218611E+01   -0.40383148E+01   -0.18453291E+00
H    -0.41817657E+01   -0.53778970E+01   -0.36892387E+01
H    -0.26060610E+01   -0.45858305E+01   -0.34174439E+01
H    -0.40373240E+01   -0.40562298E+01   -0.46990945E+01
H    -0.67488211E+01   -0.21040012E+01   -0.42329552E+01
H    -0.73225636E+01   -0.36238903E+01   -0.34662172E+01
H    -0.76276654E+01   -0.21419809E+01   -0.27283789E+01
H    -0.42919515E+01   -0.49798126E+00   -0.17229817E+01
H    -0.29154979E+01   -0.82366291E+00   -0.25777469E+01
H    -0.42603145E+01   -0.24900583E+00   -0.35307365E+01
          15
Time step:               65359 Sim. Time [au]     1307180.00
Sn   -0.50000643E+01   -0.24937021E+01   -0.26439899E+01
C    -0.70279314E+01   -0.27284877E+01   -0.31968891E+01
C    -0.37414466E+01   -0.31803465E+01   -0.42668563E+01
C    -0.43340592E+01   -0.70154709E+00   -0.15860862E+01
O    -0.48231460E+01   -0.37289568E+01   -0.11735945E+01
H    -0.43080185E+01   -0.46338748E+01   -0.86674872E+00
H    -0.36403303E+01   -0.24154985E+01   -0.52345540E+01
H    -0.39721860E+01   -0.42268239E+01   -0.46157976E+01
H    -0.27682039E+01   -0.32632007E+01   -0.35908412E+01
H    -0.72643444E+01   -0.19540761E+01   -0.39301655E+01
H    -0.70473983E+01   -0.36453965E+01   -0.36616941E+01
H    -0.76020600E+01   -0.29089932E+01   -0.20705517E+01
H    -0.53384891E+01   -0.10103774E+00   -0.12681549E+01
H    -0.37474354E+01   -0.95677953E+00   -0.76160882E+00
H    -0.36898728E+01   -0.28681826E-01   -0.21048633E+01
          15
Time step:               67339 Sim. Time [au]     1346780.00
Sn   -0.47792697E+01   -0.27362218E+01   -0.28098505E+01
C    -0.68619476E+01   -0.30106432E+01   -0.28999436E+01
C    -0.36565824E+01   -0.22177744E+01   -0.46518092E+01